ITEM: TIMESTEP
0
ITEM: NUMBER OF ATOMS
8000
ITEM: BOX BOUNDS mm mm pp
0.0000000000000000e+00 4.0700000000000003e+01
-2.8779245994292480e-03 2.8779245994292481e+01
0.0000000000000000e+00 2.3023396795433985e+02
ITEM: ATOMS id type xs ys zs
2618 1 0.4 0.10009 0.0125
2659 1 0.4 0.10009 0
7232 1 0.45 0.050095 0.00625
7229 1 0.5 0.10009 0
7230 1 0.5 9.999e-05 0
7231 1 0.5 9.999e-05 0.0125
7238 1 0.5 0.10009 0.0125
5622 1 0.6 0.10009 0
5625 1 0.55 0.050095 0.00625
5631 1 0.6 0.10009 0.0125
2621 1 0.35 0.150085 0.00625
7213 1 0.3 0.20008 0.0125
7214 1 0.3 0.20008 0
2622 1 0.4 0.20008 0.0125
2626 1 0.4 0.20008 0
7236 1 0.45 0.150085 0.00625
7234 1 0.5 0.20008 0
7235 1 0.5 0.20008 0.0125
5627 1 0.6 0.20008 0
5628 1 0.6 0.20008 0.0125
5629 1 0.55 0.150085 0.00625
4020 1 0.7 0.20008 0
4021 1 0.7 0.20008 0.0125
4022 1 0.65 0.150085 0.00625
838 1 0.15 0.350065 0.00625
800 1 0.2 0.30007 0.0125
901 1 0.2 0.30007 0
7128 1 0.25 0.350065 0.00625
7195 1 0.25 0.250075 0.00625
2591 1 0.35 0.350065 0.00625
2619 1 0.35 0.250075 0.00625
7090 1 0.3 0.30007 0.0125
7215 1 0.3 0.30007 0
2589 1 0.4 0.30007 0.0125
2628 1 0.4 0.30007 0
7237 1 0.45 0.250075 0.00625
7248 1 0.45 0.350065 0.00625
7233 1 0.5 0.30007 0
7250 1 0.5 0.30007 0.0125
5626 1 0.6 0.30007 0
5630 1 0.55 0.250075 0.00625
5641 1 0.55 0.350065 0.00625
5643 1 0.6 0.30007 0.0125
4019 1 0.7 0.30007 0
4023 1 0.65 0.250075 0.00625
4034 1 0.65 0.350065 0.00625
4036 1 0.7 0.30007 0.0125
2412 1 0.8 0.30007 0
2416 1 0.75 0.250075 0.00625
2427 1 0.75 0.350065 0.00625
2429 1 0.8 0.30007 0.0125
820 1 0.85 0.350065 0.00625
2943 1 0.05 0.450055 0.00625
837 1 0.15 0.450055 0.00625
2944 1 0.1 0.40006 0.0125
2945 1 0.1 0.40006 0
839 1 0.2 0.40006 0.0125
841 1 0.2 0.40006 0
7092 1 0.25 0.450055 0.00625
2590 1 0.35 0.450055 0.00625
7129 1 0.3 0.40006 0.0125
7130 1 0.3 0.40006 0
2592 1 0.4 0.40006 0.0125
2593 1 0.4 0.40006 0
7249 1 0.45 0.450055 0.00625
7246 1 0.5 0.40006 0
7247 1 0.5 0.40006 0.0125
5639 1 0.6 0.40006 0
5640 1 0.6 0.40006 0.0125
5642 1 0.55 0.450055 0.00625
4032 1 0.7 0.40006 0
4033 1 0.7 0.40006 0.0125
4035 1 0.65 0.450055 0.00625
2425 1 0.8 0.40006 0
2426 1 0.8 0.40006 0.0125
2428 1 0.75 0.450055 0.00625
818 1 0.9 0.40006 0
819 1 0.9 0.40006 0.0125
821 1 0.85 0.450055 0.00625
8 1 0.95 0.450055 0.00625
781 1 0.15 0.550045 0.00625
2823 1 0.1 0.50005 0.0125
2946 1 0.1 0.50005 0
775 1 0.2 0.50005 0.0125
782 1 0.2 0.60004 0.0125
783 1 0.2 0.60004 0
865 1 0.2 0.50005 0
6928 1 0.25 0.550045 0.00625
2541 1 0.35 0.550045 0.00625
6890 1 0.3 0.50005 0.0125
6929 1 0.3 0.60004 0.0125
6930 1 0.3 0.60004 0
7132 1 0.3 0.50005 0
2506 1 0.4 0.50005 0.0125
2545 1 0.4 0.60004 0.0125
2546 1 0.4 0.60004 0
2594 1 0.4 0.50005 0
7268 1 0.45 0.550045 0.00625
7245 1 0.5 0.50005 0
7266 1 0.5 0.60004 0
7267 1 0.5 0.60004 0.0125
7270 1 0.5 0.50005 0.0125
5638 1 0.6 0.50005 0
5659 1 0.6 0.60004 0
5660 1 0.6 0.60004 0.0125
5661 1 0.55 0.550045 0.00625
5663 1 0.6 0.50005 0.0125
4031 1 0.7 0.50005 0
4052 1 0.7 0.60004 0
4053 1 0.7 0.60004 0.0125
4054 1 0.65 0.550045 0.00625
4056 1 0.7 0.50005 0.0125
2424 1 0.8 0.50005 0
2445 1 0.8 0.60004 0
2446 1 0.8 0.60004 0.0125
2447 1 0.75 0.550045 0.00625
2449 1 0.8 0.50005 0.0125
817 1 0.9 0.50005 0
840 1 0.85 0.550045 0.00625
842 1 0.9 0.50005 0.0125
6892 1 0.25 0.650035 0.00625
2537 1 0.35 0.650035 0.00625
6646 1 0.3 0.70003 0.0125
6932 1 0.3 0.70003 0
2444 1 0.4 0.70003 0.0125
2547 1 0.4 0.70003 0
7269 1 0.45 0.650035 0.00625
7265 1 0.5 0.70003 0
7298 1 0.5 0.70003 0.0125
5658 1 0.6 0.70003 0
5662 1 0.55 0.650035 0.00625
5691 1 0.6 0.70003 0.0125
4051 1 0.7 0.70003 0
4055 1 0.65 0.650035 0.00625
4084 1 0.7 0.70003 0.0125
2448 1 0.75 0.650035 0.00625
2461 1 0.35 0.750025 0.00625
2462 1 0.4 0.80002 0.0125
2463 1 0.4 0.80002 0
7296 1 0.45 0.750025 0.00625
7297 1 0.45 0.850015 0.00625
7294 1 0.5 0.80002 0
7295 1 0.5 0.80002 0.0125
5687 1 0.6 0.80002 0
5688 1 0.6 0.80002 0.0125
5689 1 0.55 0.750025 0.00625
5690 1 0.55 0.850015 0.00625
4082 1 0.65 0.750025 0.00625
7293 1 0.5 0.90001 0
7330 1 0.5 0.90001 0.0125
2617 1 0.4 0.10009 0.025
7240 1 0.45 0.050095 0.01875
7239 1 0.5 0.10009 0.025
7242 1 0.5 9.999e-05 0.025
5632 1 0.6 0.10009 0.025
5633 1 0.55 0.050095 0.01875
2596 1 0.35 0.150085 0.01875
7050 1 0.3 0.20008 0.025
2585 1 0.4 0.20008 0.025
7241 1 0.45 0.150085 0.01875
7254 1 0.5 0.20008 0.025
5634 1 0.55 0.150085 0.01875
5647 1 0.6 0.20008 0.025
4027 1 0.65 0.150085 0.01875
4040 1 0.7 0.20008 0.025
797 1 0.15 0.350065 0.01875
799 1 0.2 0.30007 0.025
7052 1 0.25 0.350065 0.01875
7088 1 0.25 0.250075 0.01875
2586 1 0.35 0.350065 0.01875
2587 1 0.35 0.250075 0.01875
7089 1 0.3 0.30007 0.025
2588 1 0.4 0.30007 0.025
7252 1 0.45 0.250075 0.01875
7253 1 0.45 0.350065 0.01875
7251 1 0.5 0.30007 0.025
5644 1 0.6 0.30007 0.025
5645 1 0.55 0.250075 0.01875
5646 1 0.55 0.350065 0.01875
4037 1 0.7 0.30007 0.025
4038 1 0.65 0.250075 0.01875
4039 1 0.65 0.350065 0.01875
2430 1 0.8 0.30007 0.025
2431 1 0.75 0.250075 0.01875
2432 1 0.75 0.350065 0.01875
825 1 0.85 0.350065 0.01875
2821 1 0.05 0.450055 0.01875
772 1 0.15 0.450055 0.01875
2818 1 0.1 0.40006 0.025
770 1 0.2 0.40006 0.025
6888 1 0.25 0.450055 0.01875
2504 1 0.35 0.450055 0.01875
6850 1 0.3 0.40006 0.025
2502 1 0.4 0.40006 0.025
7272 1 0.45 0.450055 0.01875
7274 1 0.5 0.40006 0.025
5665 1 0.55 0.450055 0.01875
5667 1 0.6 0.40006 0.025
4058 1 0.65 0.450055 0.01875
4060 1 0.7 0.40006 0.025
2451 1 0.75 0.450055 0.01875
2453 1 0.8 0.40006 0.025
844 1 0.85 0.450055 0.01875
846 1 0.9 0.40006 0.025
18 1 0.95 0.450055 0.01875
771 1 0.15 0.550045 0.01875
2822 1 0.1 0.50005 0.025
713 1 0.2 0.60004 0.025
773 1 0.2 0.50005 0.025
6852 1 0.25 0.550045 0.01875
2503 1 0.35 0.550045 0.01875
6606 1 0.3 0.60004 0.025
6889 1 0.3 0.50005 0.025
2440 1 0.4 0.60004 0.025
2505 1 0.4 0.50005 0.025
7273 1 0.45 0.550045 0.01875
7271 1 0.5 0.50005 0.025
7302 1 0.5 0.60004 0.025
5664 1 0.6 0.50005 0.025
5666 1 0.55 0.550045 0.01875
5695 1 0.6 0.60004 0.025
4057 1 0.7 0.50005 0.025
4059 1 0.65 0.550045 0.01875
4088 1 0.7 0.60004 0.025
2450 1 0.8 0.50005 0.025
2452 1 0.75 0.550045 0.01875
2481 1 0.8 0.60004 0.025
843 1 0.9 0.50005 0.025
845 1 0.85 0.550045 0.01875
6644 1 0.25 0.650035 0.01875
2442 1 0.35 0.650035 0.01875
6645 1 0.3 0.70003 0.025
2443 1 0.4 0.70003 0.025
7300 1 0.45 0.650035 0.01875
7299 1 0.5 0.70003 0.025
5692 1 0.6 0.70003 0.025
5693 1 0.55 0.650035 0.01875
4085 1 0.7 0.70003 0.025
4086 1 0.65 0.650035 0.01875
2479 1 0.75 0.650035 0.01875
2441 1 0.35 0.750025 0.01875
2350 1 0.4 0.80002 0.025
7301 1 0.45 0.750025 0.01875
7332 1 0.45 0.850015 0.01875
7334 1 0.5 0.80002 0.025
5694 1 0.55 0.750025 0.01875
5725 1 0.55 0.850015 0.01875
5727 1 0.6 0.80002 0.025
4087 1 0.65 0.750025 0.01875
7331 1 0.5 0.90001 0.025
2581 1 0.4 0.10009 0.0375
7244 1 0.45 0.050095 0.03125
7260 1 0.45 0.050095 0.04375
7243 1 0.5 9.999e-05 0.0375
7258 1 0.5 0.10009 0.0375
5637 1 0.55 0.050095 0.03125
5651 1 0.6 0.10009 0.0375
5653 1 0.55 0.050095 0.04375
2577 1 0.35 0.150085 0.04375
2583 1 0.35 0.150085 0.03125
7049 1 0.3 0.20008 0.0375
2584 1 0.4 0.20008 0.0375
7256 1 0.45 0.150085 0.03125
7261 1 0.45 0.150085 0.04375
7255 1 0.5 0.20008 0.0375
5648 1 0.6 0.20008 0.0375
5649 1 0.55 0.150085 0.03125
5654 1 0.55 0.150085 0.04375
4041 1 0.7 0.20008 0.0375
4042 1 0.65 0.150085 0.03125
4047 1 0.65 0.150085 0.04375
754 1 0.15 0.350065 0.04375
768 1 0.15 0.350065 0.03125
766 1 0.2 0.30007 0.0375
6807 1 0.25 0.350065 0.04375
6808 1 0.25 0.250075 0.04375
6848 1 0.25 0.350065 0.03125
7012 1 0.25 0.250075 0.03125
2476 1 0.35 0.350065 0.04375
2477 1 0.35 0.250075 0.04375
2499 1 0.35 0.350065 0.03125
2582 1 0.35 0.250075 0.03125
6846 1 0.3 0.30007 0.0375
2497 1 0.4 0.30007 0.0375
7257 1 0.45 0.250075 0.03125
7276 1 0.45 0.350065 0.03125
7280 1 0.45 0.250075 0.04375
7281 1 0.45 0.350065 0.04375
7278 1 0.5 0.30007 0.0375
5650 1 0.55 0.250075 0.03125
5669 1 0.55 0.350065 0.03125
5671 1 0.6 0.30007 0.0375
5673 1 0.55 0.250075 0.04375
5674 1 0.55 0.350065 0.04375
4043 1 0.65 0.250075 0.03125
4062 1 0.65 0.350065 0.03125
4064 1 0.7 0.30007 0.0375
4066 1 0.65 0.250075 0.04375
4067 1 0.65 0.350065 0.04375
2436 1 0.75 0.250075 0.03125
2455 1 0.75 0.350065 0.03125
2457 1 0.8 0.30007 0.0375
2459 1 0.75 0.250075 0.04375
2460 1 0.75 0.350065 0.04375
848 1 0.85 0.350065 0.03125
853 1 0.85 0.350065 0.04375
2627 1 0.05 0.450055 0.04375
2787 1 0.05 0.450055 0.03125
707 1 0.15 0.450055 0.04375
767 1 0.15 0.450055 0.03125
2817 1 0.1 0.40006 0.0375
769 1 0.2 0.40006 0.0375
6564 1 0.25 0.450055 0.04375
6847 1 0.25 0.450055 0.03125
2433 1 0.35 0.450055 0.04375
2498 1 0.35 0.450055 0.03125
6849 1 0.3 0.40006 0.0375
2501 1 0.4 0.40006 0.0375
7277 1 0.45 0.450055 0.03125
7308 1 0.45 0.450055 0.04375
7275 1 0.5 0.40006 0.0375
5668 1 0.6 0.40006 0.0375
5670 1 0.55 0.450055 0.03125
5701 1 0.55 0.450055 0.04375
4061 1 0.7 0.40006 0.0375
4063 1 0.65 0.450055 0.03125
4094 1 0.65 0.450055 0.04375
2454 1 0.8 0.40006 0.0375
2456 1 0.75 0.450055 0.03125
2487 1 0.75 0.450055 0.04375
847 1 0.9 0.40006 0.0375
849 1 0.85 0.450055 0.03125
880 1 0.85 0.450055 0.04375
21 1 0.95 0.450055 0.03125
35 1 0.95 0.450055 0.04375
706 1 0.15 0.550045 0.04375
711 1 0.15 0.550045 0.03125
2658 1 0.1 0.50005 0.0375
709 1 0.2 0.50005 0.0375
712 1 0.2 0.60004 0.0375
6563 1 0.25 0.550045 0.04375
6604 1 0.25 0.550045 0.03125
2423 1 0.35 0.550045 0.04375
2438 1 0.35 0.550045 0.03125
6567 1 0.3 0.50005 0.0375
6605 1 0.3 0.60004 0.0375
2435 1 0.4 0.50005 0.0375
2439 1 0.4 0.60004 0.0375
7304 1 0.45 0.550045 0.03125
7309 1 0.45 0.550045 0.04375
7303 1 0.5 0.60004 0.0375
7306 1 0.5 0.50005 0.0375
5696 1 0.6 0.60004 0.0375
5697 1 0.55 0.550045 0.03125
5699 1 0.6 0.50005 0.0375
5702 1 0.55 0.550045 0.04375
4089 1 0.7 0.60004 0.0375
4090 1 0.65 0.550045 0.03125
4092 1 0.7 0.50005 0.0375
4095 1 0.65 0.550045 0.04375
2482 1 0.8 0.60004 0.0375
2483 1 0.75 0.550045 0.03125
2485 1 0.8 0.50005 0.0375
2488 1 0.75 0.550045 0.04375
876 1 0.85 0.550045 0.03125
878 1 0.9 0.50005 0.0375
881 1 0.85 0.550045 0.04375
6244 1 0.25 0.650035 0.04375
6603 1 0.25 0.650035 0.03125
2345 1 0.35 0.650035 0.04375
2437 1 0.35 0.650035 0.03125
6282 1 0.3 0.70003 0.0375
2347 1 0.4 0.70003 0.0375
7305 1 0.45 0.650035 0.03125
7340 1 0.45 0.650035 0.04375
7338 1 0.5 0.70003 0.0375
5698 1 0.55 0.650035 0.03125
5731 1 0.6 0.70003 0.0375
5733 1 0.55 0.650035 0.04375
4091 1 0.65 0.650035 0.03125
4124 1 0.7 0.70003 0.0375
4126 1 0.65 0.650035 0.04375
2484 1 0.75 0.650035 0.03125
2519 1 0.75 0.650035 0.04375
2344 1 0.35 0.750025 0.04375
2348 1 0.35 0.750025 0.03125
2349 1 0.4 0.80002 0.0375
7336 1 0.45 0.750025 0.03125
7337 1 0.45 0.850015 0.03125
7341 1 0.45 0.750025 0.04375
7372 1 0.45 0.850015 0.04375
7335 1 0.5 0.80002 0.0375
5728 1 0.6 0.80002 0.0375
5729 1 0.55 0.750025 0.03125
5730 1 0.55 0.850015 0.03125
5734 1 0.55 0.750025 0.04375
5765 1 0.55 0.850015 0.04375
4122 1 0.65 0.750025 0.03125
4127 1 0.65 0.750025 0.04375
7370 1 0.5 0.90001 0.0375
2579 1 0.4 0.10009 0.05
7264 1 0.45 0.050095 0.05625
7259 1 0.5 0.10009 0.05
7262 1 0.5 9.999e-05 0.05
5652 1 0.6 0.10009 0.05
5657 1 0.55 0.050095 0.05625
2473 1 0.35 0.150085 0.05625
6806 1 0.3 0.20008 0.05
2475 1 0.4 0.20008 0.05
7284 1 0.45 0.150085 0.05625
7282 1 0.5 0.20008 0.05
5675 1 0.6 0.20008 0.05
5677 1 0.55 0.150085 0.05625
4068 1 0.7 0.20008 0.05
4070 1 0.65 0.150085 0.05625
693 1 0.15 0.350065 0.05625
765 1 0.2 0.30007 0.05
6524 1 0.25 0.350065 0.05625
6767 1 0.25 0.250075 0.05625
2417 1 0.35 0.350065 0.05625
2472 1 0.35 0.250075 0.05625
6810 1 0.3 0.30007 0.05
2480 1 0.4 0.30007 0.05
7285 1 0.45 0.250075 0.05625
7312 1 0.45 0.350065 0.05625
7279 1 0.5 0.30007 0.05
5672 1 0.6 0.30007 0.05
5678 1 0.55 0.250075 0.05625
5705 1 0.55 0.350065 0.05625
4065 1 0.7 0.30007 0.05
4071 1 0.65 0.250075 0.05625
4098 1 0.65 0.350065 0.05625
2458 1 0.8 0.30007 0.05
2464 1 0.75 0.250075 0.05625
2491 1 0.75 0.350065 0.05625
884 1 0.85 0.350065 0.05625
2623 1 0.05 0.450055 0.05625
692 1 0.15 0.450055 0.05625
2625 1 0.1 0.40006 0.05
696 1 0.2 0.40006 0.05
6523 1 0.25 0.450055 0.05625
2408 1 0.35 0.450055 0.05625
6527 1 0.3 0.40006 0.05
2422 1 0.4 0.40006 0.05
7313 1 0.45 0.450055 0.05625
7310 1 0.5 0.40006 0.05
5703 1 0.6 0.40006 0.05
5706 1 0.55 0.450055 0.05625
4096 1 0.7 0.40006 0.05
4099 1 0.65 0.450055 0.05625
2489 1 0.8 0.40006 0.05
2492 1 0.75 0.450055 0.05625
882 1 0.9 0.40006 0.05
885 1 0.85 0.450055 0.05625
38 1 0.95 0.450055 0.05625
631 1 0.15 0.550045 0.05625
2657 1 0.1 0.50005 0.05
633 1 0.2 0.60004 0.05
708 1 0.2 0.50005 0.05
6204 1 0.25 0.550045 0.05625
2340 1 0.35 0.550045 0.05625
6242 1 0.3 0.60004 0.05
6565 1 0.3 0.50005 0.05
2343 1 0.4 0.60004 0.05
2434 1 0.4 0.50005 0.05
7344 1 0.45 0.550045 0.05625
7307 1 0.5 0.50005 0.05
7342 1 0.5 0.60004 0.05
5700 1 0.6 0.50005 0.05
5735 1 0.6 0.60004 0.05
5737 1 0.55 0.550045 0.05625
4093 1 0.7 0.50005 0.05
4128 1 0.7 0.60004 0.05
4130 1 0.65 0.550045 0.05625
2486 1 0.8 0.50005 0.05
2521 1 0.8 0.60004 0.05
2523 1 0.75 0.550045 0.05625
879 1 0.9 0.50005 0.05
916 1 0.85 0.550045 0.05625
6203 1 0.25 0.650035 0.05625
2339 1 0.35 0.650035 0.05625
6246 1 0.3 0.70003 0.05
2346 1 0.4 0.70003 0.05
7345 1 0.45 0.650035 0.05625
7339 1 0.5 0.70003 0.05
5732 1 0.6 0.70003 0.05
5738 1 0.55 0.650035 0.05625
4125 1 0.7 0.70003 0.05
4131 1 0.65 0.650035 0.05625
2524 1 0.75 0.650035 0.05625
2263 1 0.35 0.750025 0.05625
2292 1 0.4 0.80002 0.05
7376 1 0.45 0.750025 0.05625
7377 1 0.45 0.850015 0.05625
7374 1 0.5 0.80002 0.05
5767 1 0.6 0.80002 0.05
5769 1 0.55 0.750025 0.05625
5770 1 0.55 0.850015 0.05625
4162 1 0.65 0.750025 0.05625
7371 1 0.5 0.90001 0.05
2470 1 0.4 0.10009 0.075
2471 1 0.4 0.10009 0.0625
7288 1 0.45 0.050095 0.06875
7263 1 0.5 9.999e-05 0.0625
7286 1 0.5 0.10009 0.0625
7287 1 0.5 0.10009 0.075
7290 1 0.5 9.999e-05 0.075
5679 1 0.6 0.10009 0.0625
5680 1 0.6 0.10009 0.075
5681 1 0.55 0.050095 0.06875
2468 1 0.35 0.150085 0.06875
6447 1 0.3 0.20008 0.075
6805 1 0.3 0.20008 0.0625
2403 1 0.4 0.20008 0.075
2474 1 0.4 0.20008 0.0625
7289 1 0.45 0.150085 0.06875
7283 1 0.5 0.20008 0.0625
7318 1 0.5 0.20008 0.075
5676 1 0.6 0.20008 0.0625
5682 1 0.55 0.150085 0.06875
5711 1 0.6 0.20008 0.075
4069 1 0.7 0.20008 0.0625
4075 1 0.65 0.150085 0.06875
4104 1 0.7 0.20008 0.075
688 1 0.15 0.350065 0.06875
690 1 0.2 0.30007 0.075
691 1 0.2 0.30007 0.0625
6483 1 0.25 0.350065 0.06875
6484 1 0.25 0.250075 0.06875
2404 1 0.35 0.350065 0.06875
2405 1 0.35 0.250075 0.06875
6485 1 0.3 0.30007 0.075
6487 1 0.3 0.30007 0.0625
2406 1 0.4 0.30007 0.075
2407 1 0.4 0.30007 0.0625
7316 1 0.45 0.250075 0.06875
7317 1 0.45 0.350065 0.06875
7314 1 0.5 0.30007 0.0625
7315 1 0.5 0.30007 0.075
5707 1 0.6 0.30007 0.0625
5708 1 0.6 0.30007 0.075
5709 1 0.55 0.250075 0.06875
5710 1 0.55 0.350065 0.06875
4100 1 0.7 0.30007 0.0625
4101 1 0.7 0.30007 0.075
4102 1 0.65 0.250075 0.06875
4103 1 0.65 0.350065 0.06875
2493 1 0.8 0.30007 0.0625
2494 1 0.8 0.30007 0.075
2495 1 0.75 0.250075 0.06875
2496 1 0.75 0.350065 0.06875
889 1 0.85 0.350065 0.06875
2409 1 0.05 0.450055 0.06875
627 1 0.15 0.450055 0.06875
2370 1 0.1 0.40006 0.075
2624 1 0.1 0.40006 0.0625
616 1 0.2 0.40006 0.075
694 1 0.2 0.40006 0.0625
6164 1 0.25 0.450055 0.06875
2336 1 0.35 0.450055 0.06875
6162 1 0.3 0.40006 0.075
6525 1 0.3 0.40006 0.0625
2333 1 0.4 0.40006 0.075
2421 1 0.4 0.40006 0.0625
7348 1 0.45 0.450055 0.06875
7311 1 0.5 0.40006 0.0625
7350 1 0.5 0.40006 0.075
5704 1 0.6 0.40006 0.0625
5741 1 0.55 0.450055 0.06875
5743 1 0.6 0.40006 0.075
4097 1 0.7 0.40006 0.0625
4134 1 0.65 0.450055 0.06875
4136 1 0.7 0.40006 0.075
2490 1 0.8 0.40006 0.0625
2527 1 0.75 0.450055 0.06875
2529 1 0.8 0.40006 0.075
883 1 0.9 0.40006 0.0625
920 1 0.85 0.450055 0.06875
922 1 0.9 0.40006 0.075
55 1 0.95 0.450055 0.06875
626 1 0.15 0.550045 0.06875
2410 1 0.1 0.50005 0.075
2413 1 0.1 0.50005 0.0625
553 1 0.2 0.60004 0.075
628 1 0.2 0.50005 0.075
629 1 0.2 0.50005 0.0625
632 1 0.2 0.60004 0.0625
6163 1 0.25 0.550045 0.06875
2334 1 0.35 0.550045 0.06875
5842 1 0.3 0.60004 0.075
6166 1 0.3 0.50005 0.075
6202 1 0.3 0.50005 0.0625
6206 1 0.3 0.60004 0.0625
2254 1 0.4 0.60004 0.075
2337 1 0.4 0.50005 0.075
2338 1 0.4 0.50005 0.0625
2341 1 0.4 0.60004 0.0625
7349 1 0.45 0.550045 0.06875
7343 1 0.5 0.60004 0.0625
7346 1 0.5 0.50005 0.0625
7347 1 0.5 0.50005 0.075
7382 1 0.5 0.60004 0.075
5736 1 0.6 0.60004 0.0625
5739 1 0.6 0.50005 0.0625
5740 1 0.6 0.50005 0.075
5742 1 0.55 0.550045 0.06875
5775 1 0.6 0.60004 0.075
4129 1 0.7 0.60004 0.0625
4132 1 0.7 0.50005 0.0625
4133 1 0.7 0.50005 0.075
4135 1 0.65 0.550045 0.06875
4168 1 0.7 0.60004 0.075
2522 1 0.8 0.60004 0.0625
2525 1 0.8 0.50005 0.0625
2526 1 0.8 0.50005 0.075
2528 1 0.75 0.550045 0.06875
2561 1 0.8 0.60004 0.075
918 1 0.9 0.50005 0.0625
919 1 0.9 0.50005 0.075
921 1 0.85 0.550045 0.06875
5844 1 0.25 0.650035 0.06875
2257 1 0.35 0.650035 0.06875
5846 1 0.3 0.70003 0.075
5882 1 0.3 0.70003 0.0625
2258 1 0.4 0.70003 0.075
2260 1 0.4 0.70003 0.0625
7380 1 0.45 0.650035 0.06875
7378 1 0.5 0.70003 0.0625
7379 1 0.5 0.70003 0.075
5771 1 0.6 0.70003 0.0625
5772 1 0.6 0.70003 0.075
5773 1 0.55 0.650035 0.06875
4164 1 0.7 0.70003 0.0625
4165 1 0.7 0.70003 0.075
4166 1 0.65 0.650035 0.06875
2559 1 0.75 0.650035 0.06875
2256 1 0.35 0.750025 0.06875
2217 1 0.4 0.80002 0.075
2268 1 0.4 0.80002 0.0625
7381 1 0.45 0.750025 0.06875
7412 1 0.45 0.850015 0.06875
7375 1 0.5 0.80002 0.0625
7414 1 0.5 0.80002 0.075
5768 1 0.6 0.80002 0.0625
5774 1 0.55 0.750025 0.06875
5805 1 0.55 0.850015 0.06875
5807 1 0.6 0.80002 0.075
4167 1 0.65 0.750025 0.06875
7410 1 0.5 0.90001 0.0625
7411 1 0.5 0.90001 0.075
2399 1 0.4 0.10009 0.0875
7292 1 0.45 0.050095 0.08125
7291 1 0.5 9.999e-05 0.0875
7322 1 0.5 0.10009 0.0875
5685 1 0.55 0.050095 0.08125
5715 1 0.6 0.10009 0.0875
2401 1 0.35 0.150085 0.08125
6445 1 0.3 0.20008 0.0875
2402 1 0.4 0.20008 0.0875
7320 1 0.45 0.150085 0.08125
7319 1 0.5 0.20008 0.0875
5712 1 0.6 0.20008 0.0875
5713 1 0.55 0.150085 0.08125
4105 1 0.7 0.20008 0.0875
4106 1 0.65 0.150085 0.08125
613 1 0.15 0.350065 0.08125
611 1 0.2 0.30007 0.0875
6124 1 0.25 0.350065 0.08125
6443 1 0.25 0.250075 0.08125
2323 1 0.35 0.350065 0.08125
2400 1 0.35 0.250075 0.08125
6122 1 0.3 0.30007 0.0875
2306 1 0.4 0.30007 0.0875
7321 1 0.45 0.250075 0.08125
7352 1 0.45 0.350065 0.08125
7354 1 0.5 0.30007 0.0875
5714 1 0.55 0.250075 0.08125
5745 1 0.55 0.350065 0.08125
5747 1 0.6 0.30007 0.0875
4107 1 0.65 0.250075 0.08125
4138 1 0.65 0.350065 0.08125
4140 1 0.7 0.30007 0.0875
2500 1 0.75 0.250075 0.08125
2531 1 0.75 0.350065 0.08125
2533 1 0.8 0.30007 0.0875
924 1 0.85 0.350065 0.08125
2342 1 0.05 0.450055 0.08125
612 1 0.15 0.450055 0.08125
2369 1 0.1 0.40006 0.0875
614 1 0.2 0.40006 0.0875
6123 1 0.25 0.450055 0.08125
2318 1 0.35 0.450055 0.08125
6126 1 0.3 0.40006 0.0875
2332 1 0.4 0.40006 0.0875
7353 1 0.45 0.450055 0.08125
7351 1 0.5 0.40006 0.0875
5744 1 0.6 0.40006 0.0875
5746 1 0.55 0.450055 0.08125
4137 1 0.7 0.40006 0.0875
4139 1 0.65 0.450055 0.08125
2530 1 0.8 0.40006 0.0875
2532 1 0.75 0.450055 0.08125
923 1 0.9 0.40006 0.0875
925 1 0.85 0.450055 0.08125
58 1 0.95 0.450055 0.08125
551 1 0.15 0.550045 0.08125
2132 1 0.1 0.50005 0.0875
549 1 0.2 0.50005 0.0875
552 1 0.2 0.60004 0.0875
5804 1 0.25 0.550045 0.08125
2252 1 0.35 0.550045 0.08125
5802 1 0.3 0.50005 0.0875
5806 1 0.3 0.60004 0.0875
2241 1 0.4 0.50005 0.0875
2253 1 0.4 0.60004 0.0875
7384 1 0.45 0.550045 0.08125
7383 1 0.5 0.60004 0.0875
7386 1 0.5 0.50005 0.0875
5776 1 0.6 0.60004 0.0875
5777 1 0.55 0.550045 0.08125
5779 1 0.6 0.50005 0.0875
4169 1 0.7 0.60004 0.0875
4170 1 0.65 0.550045 0.08125
4172 1 0.7 0.50005 0.0875
2562 1 0.8 0.60004 0.0875
2563 1 0.75 0.550045 0.08125
2565 1 0.8 0.50005 0.0875
956 1 0.85 0.550045 0.08125
958 1 0.9 0.50005 0.0875
5803 1 0.25 0.650035 0.08125
2243 1 0.35 0.650035 0.08125
5563 1 0.3 0.70003 0.0875
2213 1 0.4 0.70003 0.0875
7385 1 0.45 0.650035 0.08125
7418 1 0.5 0.70003 0.0875
5778 1 0.55 0.650035 0.08125
5811 1 0.6 0.70003 0.0875
4171 1 0.65 0.650035 0.08125
4204 1 0.7 0.70003 0.0875
2564 1 0.75 0.650035 0.08125
2214 1 0.35 0.750025 0.08125
2216 1 0.4 0.80002 0.0875
7416 1 0.45 0.750025 0.08125
7417 1 0.45 0.850015 0.08125
7415 1 0.5 0.80002 0.0875
5808 1 0.6 0.80002 0.0875
5809 1 0.55 0.750025 0.08125
5810 1 0.55 0.850015 0.08125
4202 1 0.65 0.750025 0.08125
7450 1 0.5 0.90001 0.0875
2398 1 0.4 0.10009 0.1
7324 1 0.45 0.050095 0.09375
7328 1 0.45 0.050095 0.10625
7323 1 0.5 0.10009 0.1
7326 1 0.5 9.999e-05 0.1
5716 1 0.6 0.10009 0.1
5717 1 0.55 0.050095 0.09375
5721 1 0.55 0.050095 0.10625
2300 1 0.35 0.150085 0.10625
2360 1 0.35 0.150085 0.09375
6082 1 0.3 0.20008 0.1
2302 1 0.4 0.20008 0.1
7325 1 0.45 0.150085 0.09375
7360 1 0.45 0.150085 0.10625
7358 1 0.5 0.20008 0.1
5718 1 0.55 0.150085 0.09375
5751 1 0.6 0.20008 0.1
5753 1 0.55 0.150085 0.10625
4111 1 0.65 0.150085 0.09375
4144 1 0.7 0.20008 0.1
4146 1 0.65 0.150085 0.10625
533 1 0.15 0.350065 0.10625
608 1 0.15 0.350065 0.09375
610 1 0.2 0.30007 0.1
5724 1 0.25 0.350065 0.10625
6043 1 0.25 0.250075 0.10625
6083 1 0.25 0.350065 0.09375
6084 1 0.25 0.250075 0.09375
2235 1 0.35 0.350065 0.10625
2299 1 0.35 0.250075 0.10625
2303 1 0.35 0.350065 0.09375
2304 1 0.35 0.250075 0.09375
6086 1 0.3 0.30007 0.1
2305 1 0.4 0.30007 0.1
7356 1 0.45 0.250075 0.09375
7357 1 0.45 0.350065 0.09375
7361 1 0.45 0.250075 0.10625
7392 1 0.45 0.350065 0.10625
7355 1 0.5 0.30007 0.1
5748 1 0.6 0.30007 0.1
5749 1 0.55 0.250075 0.09375
5750 1 0.55 0.350065 0.09375
5754 1 0.55 0.250075 0.10625
5785 1 0.55 0.350065 0.10625
4141 1 0.7 0.30007 0.1
4142 1 0.65 0.250075 0.09375
4143 1 0.65 0.350065 0.09375
4147 1 0.65 0.250075 0.10625
4178 1 0.65 0.350065 0.10625
2534 1 0.8 0.30007 0.1
2535 1 0.75 0.250075 0.09375
2536 1 0.75 0.350065 0.09375
2540 1 0.75 0.250075 0.10625
2571 1 0.75 0.350065 0.10625
929 1 0.85 0.350065 0.09375
964 1 0.85 0.350065 0.10625
2100 1 0.05 0.450055 0.10625
2104 1 0.05 0.450055 0.09375
532 1 0.15 0.450055 0.10625
547 1 0.15 0.450055 0.09375
2102 1 0.1 0.40006 0.1
536 1 0.2 0.40006 0.1
5723 1 0.25 0.450055 0.10625
5764 1 0.25 0.450055 0.09375
2234 1 0.35 0.450055 0.10625
2239 1 0.35 0.450055 0.09375
5762 1 0.3 0.40006 0.1
2237 1 0.4 0.40006 0.1
7388 1 0.45 0.450055 0.09375
7393 1 0.45 0.450055 0.10625
7390 1 0.5 0.40006 0.1
5781 1 0.55 0.450055 0.09375
5783 1 0.6 0.40006 0.1
5786 1 0.55 0.450055 0.10625
4174 1 0.65 0.450055 0.09375
4176 1 0.7 0.40006 0.1
4179 1 0.65 0.450055 0.10625
2567 1 0.75 0.450055 0.09375
2569 1 0.8 0.40006 0.1
2572 1 0.75 0.450055 0.10625
960 1 0.85 0.450055 0.09375
962 1 0.9 0.40006 0.1
965 1 0.85 0.450055 0.10625
75 1 0.95 0.450055 0.09375
78 1 0.95 0.450055 0.10625
471 1 0.15 0.550045 0.10625
546 1 0.15 0.550045 0.09375
2106 1 0.1 0.50005 0.1
473 1 0.2 0.60004 0.1
548 1 0.2 0.50005 0.1
5557 1 0.25 0.550045 0.10625
5763 1 0.25 0.550045 0.09375
2180 1 0.35 0.550045 0.10625
2238 1 0.35 0.550045 0.09375
5559 1 0.3 0.60004 0.1
5766 1 0.3 0.50005 0.1
2182 1 0.4 0.60004 0.1
2240 1 0.4 0.50005 0.1
7389 1 0.45 0.550045 0.09375
7424 1 0.45 0.550045 0.10625
7387 1 0.5 0.50005 0.1
7422 1 0.5 0.60004 0.1
5780 1 0.6 0.50005 0.1
5782 1 0.55 0.550045 0.09375
5815 1 0.6 0.60004 0.1
5817 1 0.55 0.550045 0.10625
4173 1 0.7 0.50005 0.1
4175 1 0.65 0.550045 0.09375
4208 1 0.7 0.60004 0.1
4210 1 0.65 0.550045 0.10625
2566 1 0.8 0.50005 0.1
2568 1 0.75 0.550045 0.09375
2601 1 0.8 0.60004 0.1
2603 1 0.75 0.550045 0.10625
959 1 0.9 0.50005 0.1
961 1 0.85 0.550045 0.09375
996 1 0.85 0.550045 0.10625
5529 1 0.25 0.650035 0.10625
5561 1 0.25 0.650035 0.09375
2179 1 0.35 0.650035 0.10625
2184 1 0.35 0.650035 0.09375
5562 1 0.3 0.70003 0.1
2212 1 0.4 0.70003 0.1
7420 1 0.45 0.650035 0.09375
7425 1 0.45 0.650035 0.10625
7419 1 0.5 0.70003 0.1
5812 1 0.6 0.70003 0.1
5813 1 0.55 0.650035 0.09375
5818 1 0.55 0.650035 0.10625
4205 1 0.7 0.70003 0.1
4206 1 0.65 0.650035 0.09375
4211 1 0.65 0.650035 0.10625
2599 1 0.75 0.650035 0.09375
2604 1 0.75 0.650035 0.10625
2144 1 0.35 0.750025 0.10625
2183 1 0.35 0.750025 0.09375
2146 1 0.4 0.80002 0.1
7421 1 0.45 0.750025 0.09375
7452 1 0.45 0.850015 0.09375
7456 1 0.45 0.750025 0.10625
7457 1 0.45 0.850015 0.10625
7454 1 0.5 0.80002 0.1
5814 1 0.55 0.750025 0.09375
5845 1 0.55 0.850015 0.09375
5847 1 0.6 0.80002 0.1
5849 1 0.55 0.750025 0.10625
5850 1 0.55 0.850015 0.10625
4207 1 0.65 0.750025 0.09375
4242 1 0.65 0.750025 0.10625
7451 1 0.5 0.90001 0.1
2298 1 0.4 0.10009 0.1125
7364 1 0.45 0.050095 0.11875
7327 1 0.5 9.999e-05 0.1125
7362 1 0.5 0.10009 0.1125
5755 1 0.6 0.10009 0.1125
5757 1 0.55 0.050095 0.11875
2294 1 0.35 0.150085 0.11875
6046 1 0.3 0.20008 0.1125
2301 1 0.4 0.20008 0.1125
7365 1 0.45 0.150085 0.11875
7359 1 0.5 0.20008 0.1125
5752 1 0.6 0.20008 0.1125
5758 1 0.55 0.150085 0.11875
4145 1 0.7 0.20008 0.1125
4151 1 0.65 0.150085 0.11875
528 1 0.15 0.350065 0.11875
531 1 0.2 0.30007 0.1125
5620 1 0.25 0.350065 0.11875
5621 1 0.25 0.250075 0.11875
2225 1 0.35 0.350065 0.11875
2226 1 0.35 0.250075 0.11875
5722 1 0.3 0.30007 0.1125
2233 1 0.4 0.30007 0.1125
7396 1 0.45 0.250075 0.11875
7397 1 0.45 0.350065 0.11875
7394 1 0.5 0.30007 0.1125
5787 1 0.6 0.30007 0.1125
5789 1 0.55 0.250075 0.11875
5790 1 0.55 0.350065 0.11875
4180 1 0.7 0.30007 0.1125
4182 1 0.65 0.250075 0.11875
4183 1 0.65 0.350065 0.11875
2573 1 0.8 0.30007 0.1125
2575 1 0.75 0.250075 0.11875
2576 1 0.75 0.350065 0.11875
969 1 0.85 0.350065 0.11875
2011 1 0.05 0.450055 0.11875
467 1 0.15 0.450055 0.11875
2101 1 0.1 0.40006 0.1125
534 1 0.2 0.40006 0.1125
5525 1 0.25 0.450055 0.11875
2176 1 0.35 0.450055 0.11875
5726 1 0.3 0.40006 0.1125
2236 1 0.4 0.40006 0.1125
7428 1 0.45 0.450055 0.11875
7391 1 0.5 0.40006 0.1125
5784 1 0.6 0.40006 0.1125
5821 1 0.55 0.450055 0.11875
4177 1 0.7 0.40006 0.1125
4214 1 0.65 0.450055 0.11875
2570 1 0.8 0.40006 0.1125
2607 1 0.75 0.450055 0.11875
963 1 0.9 0.40006 0.1125
1000 1 0.85 0.450055 0.11875
95 1 0.95 0.450055 0.11875
466 1 0.15 0.550045 0.11875
2014 1 0.1 0.50005 0.1125
469 1 0.2 0.50005 0.1125
472 1 0.2 0.60004 0.1125
5524 1 0.25 0.550045 0.11875
2174 1 0.35 0.550045 0.11875
5527 1 0.3 0.50005 0.1125
5558 1 0.3 0.60004 0.1125
2178 1 0.4 0.50005 0.1125
2181 1 0.4 0.60004 0.1125
7429 1 0.45 0.550045 0.11875
7423 1 0.5 0.60004 0.1125
7426 1 0.5 0.50005 0.1125
5816 1 0.6 0.60004 0.1125
5819 1 0.6 0.50005 0.1125
5822 1 0.55 0.550045 0.11875
4209 1 0.7 0.60004 0.1125
4212 1 0.7 0.50005 0.1125
4215 1 0.65 0.550045 0.11875
2602 1 0.8 0.60004 0.1125
2605 1 0.8 0.50005 0.1125
2608 1 0.75 0.550045 0.11875
998 1 0.9 0.50005 0.1125
1001 1 0.85 0.550045 0.11875
5365 1 0.25 0.650035 0.11875
2141 1 0.35 0.650035 0.11875
5367 1 0.3 0.70003 0.1125
2143 1 0.4 0.70003 0.1125
7460 1 0.45 0.650035 0.11875
7458 1 0.5 0.70003 0.1125
5851 1 0.6 0.70003 0.1125
5853 1 0.55 0.650035 0.11875
4244 1 0.7 0.70003 0.1125
4246 1 0.65 0.650035 0.11875
2639 1 0.75 0.650035 0.11875
2140 1 0.35 0.750025 0.11875
2145 1 0.4 0.80002 0.1125
7461 1 0.45 0.750025 0.11875
7492 1 0.45 0.850015 0.11875
7455 1 0.5 0.80002 0.1125
5848 1 0.6 0.80002 0.1125
5854 1 0.55 0.750025 0.11875
5885 1 0.55 0.850015 0.11875
4247 1 0.65 0.750025 0.11875
7490 1 0.5 0.90001 0.1125
2220 1 0.4 0.10009 0.1375
2297 1 0.4 0.10009 0.125
7368 1 0.45 0.050095 0.13125
7363 1 0.5 0.10009 0.125
7366 1 0.5 9.999e-05 0.125
7367 1 0.5 9.999e-05 0.1375
7402 1 0.5 0.10009 0.1375
5756 1 0.6 0.10009 0.125
5761 1 0.55 0.050095 0.13125
5795 1 0.6 0.10009 0.1375
2222 1 0.35 0.150085 0.13125
5618 1 0.3 0.20008 0.1375
5619 1 0.3 0.20008 0.125
2223 1 0.4 0.20008 0.1375
2224 1 0.4 0.20008 0.125
7400 1 0.45 0.150085 0.13125
7398 1 0.5 0.20008 0.125
7399 1 0.5 0.20008 0.1375
5791 1 0.6 0.20008 0.125
5792 1 0.6 0.20008 0.1375
5793 1 0.55 0.150085 0.13125
4184 1 0.7 0.20008 0.125
4185 1 0.7 0.20008 0.1375
4186 1 0.65 0.150085 0.13125
453 1 0.15 0.350065 0.13125
451 1 0.2 0.30007 0.1375
530 1 0.2 0.30007 0.125
5521 1 0.25 0.350065 0.13125
5612 1 0.25 0.250075 0.13125
2159 1 0.35 0.350065 0.13125
2221 1 0.35 0.250075 0.13125
5487 1 0.3 0.30007 0.1375
5686 1 0.3 0.30007 0.125
2157 1 0.4 0.30007 0.1375
2229 1 0.4 0.30007 0.125
7401 1 0.45 0.250075 0.13125
7432 1 0.45 0.350065 0.13125
7395 1 0.5 0.30007 0.125
7434 1 0.5 0.30007 0.1375
5788 1 0.6 0.30007 0.125
5794 1 0.55 0.250075 0.13125
5825 1 0.55 0.350065 0.13125
5827 1 0.6 0.30007 0.1375
4181 1 0.7 0.30007 0.125
4187 1 0.65 0.250075 0.13125
4218 1 0.65 0.350065 0.13125
4220 1 0.7 0.30007 0.1375
2574 1 0.8 0.30007 0.125
2580 1 0.75 0.250075 0.13125
2611 1 0.75 0.350065 0.13125
2613 1 0.8 0.30007 0.1375
1004 1 0.85 0.350065 0.13125
1981 1 0.05 0.450055 0.13125
452 1 0.15 0.450055 0.13125
1982 1 0.1 0.40006 0.1375
1983 1 0.1 0.40006 0.125
454 1 0.2 0.40006 0.1375
456 1 0.2 0.40006 0.125
5489 1 0.25 0.450055 0.13125
2158 1 0.35 0.450055 0.13125
5522 1 0.3 0.40006 0.1375
5523 1 0.3 0.40006 0.125
2172 1 0.4 0.40006 0.1375
2173 1 0.4 0.40006 0.125
7433 1 0.45 0.450055 0.13125
7430 1 0.5 0.40006 0.125
7431 1 0.5 0.40006 0.1375
5823 1 0.6 0.40006 0.125
5824 1 0.6 0.40006 0.1375
5826 1 0.55 0.450055 0.13125
4216 1 0.7 0.40006 0.125
4217 1 0.7 0.40006 0.1375
4219 1 0.65 0.450055 0.13125
2609 1 0.8 0.40006 0.125
2610 1 0.8 0.40006 0.1375
2612 1 0.75 0.450055 0.13125
1002 1 0.9 0.40006 0.125
1003 1 0.9 0.40006 0.1375
1005 1 0.85 0.450055 0.13125
98 1 0.95 0.450055 0.13125
391 1 0.15 0.550045 0.13125
1890 1 0.1 0.50005 0.1375
2012 1 0.1 0.50005 0.125
389 1 0.2 0.50005 0.1375
392 1 0.2 0.60004 0.1375
393 1 0.2 0.60004 0.125
468 1 0.2 0.50005 0.125
5361 1 0.25 0.550045 0.13125
2137 1 0.35 0.550045 0.13125
5327 1 0.3 0.50005 0.1375
5362 1 0.3 0.60004 0.1375
5363 1 0.3 0.60004 0.125
5526 1 0.3 0.50005 0.125
2134 1 0.4 0.50005 0.1375
2138 1 0.4 0.60004 0.1375
2139 1 0.4 0.60004 0.125
2177 1 0.4 0.50005 0.125
7464 1 0.45 0.550045 0.13125
7427 1 0.5 0.50005 0.125
7462 1 0.5 0.60004 0.125
7463 1 0.5 0.60004 0.1375
7466 1 0.5 0.50005 0.1375
5820 1 0.6 0.50005 0.125
5855 1 0.6 0.60004 0.125
5856 1 0.6 0.60004 0.1375
5857 1 0.55 0.550045 0.13125
5859 1 0.6 0.50005 0.1375
4213 1 0.7 0.50005 0.125
4248 1 0.7 0.60004 0.125
4249 1 0.7 0.60004 0.1375
4250 1 0.65 0.550045 0.13125
4252 1 0.7 0.50005 0.1375